LAMMPS Description

109 atoms
812 bonds

 99 atom types
800 bond types

00.000  800.000 xlo xhi
00.000  800.000 ylo yhi
00.000  800.000 zlo zhi

Masses

  1    257.137
  2    931.480
  3   1352.745
  4   1316.745
  5   1030.534
  6    215.091
  7    372.176
  8    940.505
  9    950.461
 10   1281.679
 11   1193.558
 12    631.300
 13    628.391
 14    997.580
 15   1066.642
 16    564.311
 17   1178.746
 18    975.434
 19    253.154
 20    815.778
 21    960.110
 22    896.990
 23   1020.140
 24    904.080
 25    960.110
 26    980.220
 27    948.090
 28    869.010
 29    882.990
 30    883.020
 31    875.980
 32    654.640
 33    879.060
 34    812.960
 35    926.120
 36   1077.250
 37    901.080
 38    839.950
 39   1063.230
 40   1014.120
 41    927.050
 42    923.160
 43    951.080
 44   1122.200
 45    707.790
 46    714.820
 47    779.950
 48    650.820
 49    896.090
 50   1053.180
 51    925.070
 52    935.000
 53   1098.260
 54    229.190
 55    456.530
 56    495.630
 57    970.180
 58   1033.210
 59    939.080
 60    765.960
 61   1067.250
 62   1270.550
 63    799.000
 64    626.760
 65    202.170
 66    158.160
 67    656.820
 68    682.810
 69   1030.160
 70   1134.380
 71   1050.190
 72   1990.470
 73    842.090
 74    620.710
 75   1156.330
 76    988.210
 77   1031.220
 78   1312.530
 79   1475.840
 80   1009.140
 81   1043.260
 82    964.140
 83    688.730
 84   1308.610
 85   1655.000
 86    327.430
 87    784.401
 88   1219.616
 89    979.629
 90    828.332
 91   1140.542
 92    624.317
 93    585.244
 94   1484.774
 95    346.131
 96    331.102
 97    941.457
 98   1515.670
 99    553.312

Atoms

  1  1   1  0.00   31.220   45.070   53.730
  2  1   2  0.00   36.210   54.050   51.900
  3  1   3  0.00   37.350   58.550   43.070
  4  1   4  0.00   27.980   46.680   44.830
  5  1   5  0.00   41.210   44.420   45.560
  6  1   6  0.00   53.720   50.040   37.460
  7  1   7  0.00   51.070   51.510   42.420
  8  1   8  0.00   36.990   41.590   42.540
  9  1   9  0.00   25.890   26.320   35.500
 10  1  10  0.00   38.490   43.530   38.620
 11  1  11  0.00   38.230   48.730   33.660
 12  1  12  0.00   42.320   27.700   39.860
 13  1  13  0.00   40.560   29.030   27.850
 14  1  14  0.00   41.580   36.370   28.570
 15  1  15  0.00   32.880   47.730   25.640
 16  1  16  0.00   28.120   54.300   31.170
 17  1  17  0.00   27.890   40.960   33.260
 18  1  18  0.00   33.430   28.540   30.860
 19  1  19  0.00   41.040   18.640   36.470
 20  1  20  0.00   56.040   18.640   36.470
 21  1  20  0.00   56.040   33.640   36.470
 22  1  20  0.00   56.040   33.640   51.470
 23  1  20  0.00   71.040   33.640   51.470
 24  1  20  0.00   71.040   48.640   51.470
 25  1  20  0.00   71.040   48.640   66.470
 26  1  20  0.00   86.040   48.640   66.470
 27  1  20  0.00   86.040   63.640   66.470
 28  1  20  0.00   86.040   63.640   81.470
 29  1  21  0.00   71.040   63.640   81.470
 30  1  22  0.00   82.840   62.790   82.180
 31  1  23  0.00   94.690   61.790   83.710
 32  1  24  0.00  105.870   59.920   86.630
 33  1  25  0.00  117.210   53.470   90.040
 34  1  26  0.00  127.410   49.350   96.020
 35  1  27  0.00  137.490   46.160  101.810
 36  1  28  0.00  147.700   44.190  107.560
 37  1  29  0.00  158.420   43.800  112.910
 38  1  30  0.00  169.790   44.590  117.080
 39  1  31  0.00  181.090   46.770  120.330
 40  1  32  0.00  190.900   49.320  119.780
 41  1  33  0.00   83.990   55.520   84.750
 42  1  34  0.00   71.690   63.890   90.140
 43  1  35  0.00   78.470   70.310   89.690
 44  1  36  0.00   87.840   66.290   92.230
 45  1  37  0.00   94.960   55.070   91.820
 46  1  38  0.00  107.440   50.200   96.440
 47  1  39  0.00  118.080   50.650  102.250
 48  1  40  0.00  128.390   51.020  108.290
 49  1  41  0.00  139.510   51.440  112.900
 50  1  42  0.00  151.490   52.460  114.540
 51  1  43  0.00  163.550   53.330  114.580
 52  1  44  0.00  176.060   54.330  111.670
 53  1  45  0.00  186.600   41.560  111.860
 54  1  46  0.00  173.130   45.700  107.420
 55  1  47  0.00  156.580   50.710  104.360
 56  1  48  0.00  138.530   55.960  103.680
 57  1  49  0.00  125.780   59.970  101.580
 58  1  50  0.00  113.490   59.160   99.480
 59  1  51  0.00  101.440   59.130   98.540
 60  1  52  0.00   88.720   60.200   99.720
 61  1  53  0.00   77.420   63.500  101.300
 62  1  54  0.00  194.300   52.340  117.470
 63  1  55  0.00  195.580   51.140  111.200
 64  1  56  0.00  199.080   43.730  104.760
 65  1  57  0.00  207.160   45.180  103.020
 66  1  58  0.00  211.500   56.960  101.150
 67  1  59  0.00  215.710   69.130  100.780
 68  1  60  0.00  219.890   78.100  103.110
 69  1  61  0.00  226.350   69.970  103.760
 70  1  62  0.00  221.760   56.660  101.250
 71  1  63  0.00  215.920   46.300   96.630
 72  1  64  0.00  209.800   40.250   93.400
 73  1  65  0.00  210.520   44.480   88.680
 74  1  66  0.00  182.810   46.890  110.270
 75  1  67  0.00  185.210   53.390  106.640
 76  1  68  0.00  192.120   60.020  107.430
 77  1  69  0.00  201.120   68.120  107.530
 78  1  70  0.00  211.650   76.100  109.050
 79  1  71  0.00  215.580   67.450  112.030
 80  1  72  0.00  202.300   57.290  104.080
 81  1  73  0.00  187.850   50.120   97.460
 82  1  74  0.00  207.980   56.030   92.800
 83  1  75  0.00  198.970   46.590   98.230
 84  1  76  0.00  211.030   36.900  102.340
 85  1  77  0.00  227.480   40.810  102.740
 86  1  78  0.00  229.000   51.840   98.300
 87  1  79  0.00  225.760   68.710   93.060
 88  1  80  0.00  229.090   79.230   95.010
 89  1  81  0.00  236.330   68.350   94.900
 90  1  82  0.00  236.390   54.850   93.280
 91  1  83  0.00  233.100   46.840   87.150
 92  1  84  0.00  223.960   53.250   86.860
 93  1  85  0.00  230.400   65.510   85.570
 94  1  86  0.00  235.020   75.690   86.130
 95  1  20  0.00  246.020   75.690   96.130
 96  1  20  0.00  246.020   75.690  111.130
 97  1  87  0.00  246.020   75.690  126.130
 98  1  88  0.00  260.000   74.410  126.540
 99  1  89  0.00  272.980   72.920  124.870
100  1  90  0.00  266.270   73.930  116.060
101  1  91  0.00  255.560   79.750  117.840
102  1  92  0.00  246.520   84.430  121.890
103  1  93  0.00  253.850   91.650  123.150
104  1  94  0.00  263.990   85.930  118.090
105  1  95  0.00  273.460   80.370  109.420
106  1  96  0.00  277.540   75.720  112.970
107  1  97  0.00  276.270   81.410  124.020
108  1  98  0.00  262.740   83.600  129.790
109  1  99  0.00  250.870   85.970  134.540

Bonds

  1    1   1   2
  2    2   1   3
  3    3   1   4
  4    4   1   5
  5    5   1   6
  6    6   1   7
  7    7   1   8
  8    8   1   9
  9    9   1  10
 10   10   1  11
 11   11   1  12
 12   12   1  14
 13   13   1  15
 14   14   1  16
 15   15   1  17
 16   16   1  18
 17   17   2   3
 18   18   2   4
 19   19   2   5
 20   20   2   6
 21   21   2   7
 22   22   2   8
 23   23   2  10
 24   24   2  11
 25   25   2  12
 26   26   2  14
 27   27   2  15
 28   28   2  16
 29   29   2  17
 30   30   3   4
 31   31   3   5
 32   32   3   6
 33   33   3   7
 34   34   3   8
 35   35   3  10
 36   36   3  11
 37   37   3  14
 38   38   3  15
 39   39   3  16
 40   40   3  17
 41   41   4   5
 42   42   4   6
 43   43   4   7
 44   44   4   8
 45   45   4   9
 46   46   4  10
 47   47   4  11
 48   48   4  12
 49   49   4  13
 50   50   4  14
 51   51   4  15
 52   52   4  16
 53   53   4  17
 54   54   4  18
 55   55   5   6
 56   56   5   7
 57   57   5   8
 58   58   5   9
 59   59   5  10
 60   60   5  11
 61   61   5  12
 62   62   5  13
 63   63   5  14
 64   64   5  15
 65   65   5  16
 66   66   5  17
 67   67   5  18
 68   68   5  19
 69   69   6   7
 70   70   6   8
 71   71   6  10
 72   72   6  11
 73   73   6  12
 74   74   6  13
 75   75   6  14
 76   76   6  15
 77   77   6  16
 78   78   6  17
 79   79   7   8
 80   80   7  10
 81   81   7  11
 82   82   7  12
 83   83   7  13
 84   84   7  14
 85   85   7  15
 86   86   7  16
 87   87   7  17
 88   88   8   9
 89   89   8  10
 90   90   8  11
 91   91   8  12
 92   92   8  13
 93   93   8  14
 94   94   8  15
 95   95   8  16
 96   96   8  17
 97   97   8  18
 98   98   8  19
 99   99   9  10
100  100   9  11
101  101   9  12
102  102   9  13
103  103   9  14
104  104   9  15
105  105   9  16
106  106   9  17
107  107   9  18
108  108   9  19
109  109  10  11
110  110  10  12
111  111  10  13
112  112  10  14
113  113  10  15
114  114  10  16
115  115  10  17
116  116  10  18
117  117  10  19
118  118  11  12
119  119  11  13
120  120  11  14
121  121  11  15
122  122  11  16
123  123  11  17
124  124  11  18
125  125  12  13
126  126  12  14
127  127  12  15
128  128  12  17
129  129  12  18
130  130  12  19
131  131  13  14
132  132  13  15
133  133  13  16
134  134  13  17
135  135  13  18
136  136  13  19
137  137  14  15
138  138  14  16
139  139  14  17
140  140  14  18
141  141  14  19
142  142  15  16
143  143  15  17
144  144  15  18
145  145  16  17
146  146  16  18
147  147  17  18
148  148  17  19
149  149  18  19
150  150  19  20
151  150  20  21
152  150  21  22
153  150  22  23
154  150  23  24
155  150  24  25
156  150  25  26
157  150  26  27
158  150  27  28
159  150  28  29
160  151  29  30
161  152  29  31
162  153  30  31
163  154  30  32
164  155  31  32
165  156  31  33
166  157  32  33
167  158  32  34
168  159  33  34
169  160  33  35
170  161  34  35
171  162  34  36
172  163  35  36
173  164  35  37
174  165  36  37
175  166  36  38
176  167  37  38
177  168  37  39
178  169  38  39
179  170  38  40
180  171  39  40
181  172  41  42
182  173  41  43
183  174  41  44
184  175  41  45
185  176  41  46
186  177  42  43
187  178  42  44
188  179  42  45
189  180  43  44
190  181  43  45
191  182  44  45
192  183  44  46
193  184  45  46
194  185  45  47
195  186  46  47
196  187  46  48
197  188  47  48
198  189  47  49
199  190  48  49
200  191  48  50
201  192  49  50
202  193  49  51
203  194  50  51
204  195  50  52
205  196  51  52
206  197  53  54
207  198  54  55
208  199  55  56
209  200  56  57
210  201  56  58
211  202  57  58
212  203  57  59
213  204  58  59
214  205  58  60
215  206  59  60
216  207  59  61
217  208  60  61
218  209  29  41
219  210  29  42
220  211  29  43
221  212  29  44
222  213  29  45
223  214  29  60
224  215  29  61
225  216  30  41
226  217  30  42
227  218  30  43
228  219  30  44
229  220  30  45
230  221  30  59
231  222  30  60
232  223  30  61
233  224  31  41
234  225  31  42
235  226  31  43
236  227  31  44
237  228  31  45
238  229  31  46
239  230  31  58
240  231  31  59
241  232  31  60
242  233  31  61
243  234  32  41
244  235  32  43
245  236  32  44
246  237  32  45
247  238  32  46
248  239  32  47
249  240  32  57
250  241  32  58
251  242  32  59
252  243  32  60
253  244  33  45
254  245  33  46
255  246  33  47
256  247  33  48
257  248  33  56
258  249  33  57
259  250  33  58
260  251  33  59
261  252  34  46
262  253  34  47
263  254  34  48
264  255  34  49
265  256  34  56
266  257  34  57
267  258  34  58
268  259  34  59
269  260  35  47
270  261  35  48
271  262  35  49
272  263  35  50
273  264  35  51
274  265  35  55
275  266  35  56
276  267  35  57
277  268  35  58
278  269  36  48
279  270  36  49
280  271  36  50
281  272  36  51
282  273  36  54
283  274  36  55
284  275  36  56
285  276  36  57
286  277  37  49
287  278  37  50
288  279  37  51
289  280  37  52
290  281  37  53
291  282  37  54
292  283  37  55
293  284  37  56
294  285  37  74
295  286  37  75
296  287  38  50
297  288  38  51
298  289  38  52
299  290  38  53
300  291  38  54
301  292  38  55
302  293  38  62
303  294  38  63
304  295  38  74
305  296  38  75
306  297  38  76
307  298  38  81
308  299  39  51
309  300  39  52
310  301  39  53
311  302  39  54
312  303  39  55
313  304  39  62
314  305  39  63
315  306  39  64
316  307  39  74
317  308  39  75
318  309  39  76
319  310  39  80
320  311  39  81
321  312  39  83
322  313  40  51
323  314  40  52
324  315  40  53
325  316  40  54
326  317  40  62
327  318  40  63
328  319  40  64
329  320  40  65
330  321  40  66
331  322  40  74
332  323  40  75
333  324  40  76
334  325  40  77
335  326  40  80
336  327  40  81
337  328  40  83
338  329  40  84
339  330  41  59
340  331  41  60
341  332  41  61
342  333  42  60
343  334  42  61
344  335  43  59
345  336  43  60
346  337  43  61
347  338  44  58
348  339  44  59
349  340  44  60
350  341  44  61
351  342  45  58
352  343  45  59
353  344  45  60
354  345  45  61
355  346  46  57
356  347  46  58
357  348  46  59
358  349  46  60
359  350  47  56
360  351  47  57
361  352  47  58
362  353  47  59
363  354  48  55
364  355  48  56
365  356  48  57
366  357  48  58
367  358  48  59
368  359  49  55
369  360  49  56
370  361  49  57
371  362  50  54
372  363  50  55
373  364  50  56
374  365  50  57
375  366  51  53
376  367  51  54
377  368  51  55
378  369  51  56
379  370  51  74
380  371  51  75
381  372  51  81
382  373  52  53
383  374  52  54
384  375  52  55
385  376  52  62
386  377  52  63
387  378  52  64
388  379  52  74
389  380  52  75
390  381  52  76
391  382  52  77
392  383  52  80
393  384  52  81
394  385  52  83
395  386  53  62
396  387  53  63
397  388  53  64
398  389  53  65
399  390  53  72
400  391  53  74
401  392  53  75
402  393  53  76
403  394  53  80
404  395  53  81
405  396  53  83
406  397  53  84
407  398  54  62
408  399  54  63
409  400  54  64
410  401  54  74
411  402  54  75
412  403  54  76
413  404  54  81
414  405  54  83
415  406  55  74
416  407  55  75
417  408  62  63
418  409  62  64
419  410  62  65
420  411  62  66
421  412  62  71
422  413  62  74
423  414  62  75
424  415  62  76
425  416  62  77
426  417  62  78
427  418  62  79
428  419  62  80
429  420  62  81
430  421  62  82
431  422  62  83
432  423  62  84
433  424  63  64
434  425  63  65
435  426  63  66
436  427  63  67
437  428  63  70
438  429  63  71
439  430  63  72
440  431  63  73
441  432  63  74
442  433  63  75
443  434  63  76
444  435  63  77
445  436  63  78
446  437  63  79
447  438  63  80
448  439  63  81
449  440  63  82
450  441  63  83
451  442  63  84
452  443  64  65
453  444  64  66
454  445  64  70
455  446  64  71
456  447  64  72
457  448  64  73
458  449  64  74
459  450  64  75
460  451  64  76
461  452  64  77
462  453  64  79
463  454  64  80
464  455  64  81
465  456  64  82
466  457  64  83
467  458  64  84
468  459  65  66
469  460  65  67
470  461  65  70
471  462  65  71
472  463  65  72
473  464  65  73
474  465  65  74
475  466  65  75
476  467  65  76
477  468  65  77
478  469  65  79
479  470  65  80
480  471  65  81
481  472  65  82
482  473  65  83
483  474  65  84
484  475  65  85
485  476  65  86
486  477  65  92
487  478  66  67
488  479  66  68
489  480  66  69
490  481  66  70
491  482  66  71
492  483  66  72
493  484  66  73
494  485  66  75
495  486  66  76
496  487  66  77
497  488  66  78
498  489  66  79
499  490  66  80
500  491  66  81
501  492  66  82
502  493  66  83
503  494  66  84
504  495  66  85
505  496  66  86
506  497  66  87
507  498  66  88
508  499  66  89
509  500  66  90
510  501  66  91
511  502  66  92
512  503  66  93
513  504  67  68
514  505  67  69
515  506  67  70
516  507  67  71
517  508  67  73
518  509  67  76
519  510  67  77
520  511  67  78
521  512  67  79
522  513  67  80
523  514  67  82
524  515  67  83
525  516  67  86
526  517  67  87
527  518  67  88
528  519  67  89
529  520  67  90
530  521  67  92
531  522  67  93
532  523  67  94
533  524  68  69
534  525  68  70
535  526  68  77
536  527  68  78
537  528  68  79
538  529  68  80
539  530  68  82
540  531  68  86
541  532  68  87
542  533  68  88
543  534  68  89
544  535  68  93
545  536  68  94
546  537  69  70
547  538  69  71
548  539  69  77
549  540  69  78
550  541  69  79
551  542  69  80
552  543  69  82
553  544  69  85
554  545  69  86
555  546  69  87
556  547  69  88
557  548  69  89
558  549  69  90
559  550  69  91
560  551  69  92
561  552  69  93
562  553  69  94
563  554  70  71
564  555  70  72
565  556  70  73
566  557  70  77
567  558  70  78
568  559  70  79
569  560  70  80
570  561  70  82
571  562  70  83
572  563  70  84
573  564  70  85
574  565  70  86
575  566  70  87
576  567  70  88
577  568  70  89
578  569  70  90
579  570  70  91
580  571  70  92
581  572  70  93
582  573  70  94
583  574  71  72
584  575  71  73
585  576  71  76
586  577  71  77
587  578  71  79
588  579  71  80
589  580  71  81
590  581  71  82
591  582  71  83
592  583  71  84
593  584  71  85
594  585  71  86
595  586  71  87
596  587  71  89
597  588  71  90
598  589  71  91
599  590  71  92
600  591  71  93
601  592  72  73
602  593  72  80
603  594  72  81
604  595  72  82
605  596  72  83
606  597  72  84
607  598  72  85
608  599  72  86
609  600  72  90
610  601  72  91
611  602  72  92
612  603  73  80
613  604  73  81
614  605  73  82
615  606  73  83
616  607  73  84
617  608  73  85
618  609  73  86
619  610  73  87
620  611  73  90
621  612  73  91
622  613  73  92
623  614  73  93
624  615  74  75
625  616  74  76
626  617  74  77
627  618  74  80
628  619  74  81
629  620  74  83
630  621  75  76
631  622  75  77
632  623  75  80
633  624  75  81
634  625  75  82
635  626  75  83
636  627  76  77
637  628  76  78
638  629  76  79
639  630  76  80
640  631  76  81
641  632  76  82
642  633  76  83
643  634  77  78
644  635  77  79
645  636  77  80
646  637  77  81
647  638  77  82
648  639  77  83
649  640  77  87
650  641  78  79
651  642  78  80
652  643  78  82
653  644  78  87
654  645  78  88
655  646  79  80
656  647  79  82
657  648  79  83
658  649  79  86
659  650  79  87
660  651  79  88
661  652  79  89
662  653  79  93
663  654  80  81
664  655  80  82
665  656  80  83
666  657  80  84
667  658  80  86
668  659  80  87
669  660  80  92
670  661  81  82
671  662  81  83
672  663  81  84
673  664  82  83
674  665  82  84
675  666  82  85
676  667  82  86
677  668  82  87
678  669  82  88
679  670  82  89
680  671  82  90
681  672  82  91
682  673  82  92
683  674  82  93
684  675  83  84
685  676  83  92
686  677  84  85
687  678  84  86
688  679  84  91
689  680  84  92
690  681  85  86
691  682  85  87
692  683  85  89
693  684  85  90
694  685  85  91
695  686  85  92
696  687  85  93
697  688  86  87
698  689  86  88
699  690  86  89
700  691  86  90
701  692  86  91
702  693  86  92
703  694  86  93
704  695  86  94
705  696  87  88
706  697  87  89
707  698  87  90
708  699  87  91
709  700  87  92
710  701  87  93
711  702  87  94
712  703  88  89
713  704  88  90
714  705  88  92
715  706  88  93
716  707  88  94
717  708  89  90
718  709  89  91
719  710  89  92
720  711  89  93
721  712  89  94
722  713  90  91
723  714  90  92
724  715  90  93
725  716  90  94
726  717  91  92
727  718  91  93
728  719  91  94
729  720  92  93
730  721  92  94
731  722  93  94
732  150  94  95
733  150  95  96
734  150  96  97
735  723  97   98
736  724  97   99
737  725  97  100
738  726  97  101
739  727  97  102
740  728  97  103
741  729  97  104
742  730  97  105
743  731  97  106
744  732  97  107
745  733  97  108
746  734  97  109
747  735  98   99
748  736  98  100
749  737  98  101
750  738  98  102
751  739  98  103
752  740  98  104
753  741  98  105
754  742  98  106
755  743  98  107
756  744  98  108
757  745  98  109
758  746  99  100
759  747  99  101
760  748  99  102
761  749  99  103
762  750  99  104
763  751  99  105
764  752  99  106
765  753  99  107
766  754  99  108
767  755  99  109
768  756 100  101
769  757 100  102
770  758 100  103
771  759 100  104
772  760 100  105
773  761 100  106
774  762 100  107
775  763 100  108
776  764 100  109
777  765 101  102
778  766 101  103
779  767 101  104
780  768 101  105
781  769 101  106
782  770 101  107
783  771 101  108
784  772 101  109
785  773 102  103
786  774 102  104
787  775 102  105
788  776 102  106
789  777 102  107
790  778 102  108
791  779 102  109
792  780 103  104
793  781 103  105
794  782 103  106
795  783 103  107
796  784 103  108
797  785 103  109
798  786 104  105
799  787 104  106
800  788 104  107
801  789 104  108
802  790 104  109
803  791 105  106
804  792 105  107
805  793 105  108
806  794 105  109
807  795 106  107
808  796 106  108
809  797 106  109
810  798 107  108
811  799 107  109
812  800 108  109
